
FAST Summary File

Predictions were generated on 23-Oct-2018 at 11:28:29 using FAST (v8.16.00a-bjj, 27-Jul-2016), compiled as a 64-bit application using single precision
  compiled with
    NWTC Subroutine Library (v2.09.00, 23-Jul-2016)
    ElastoDyn (v1.04.00a-bjj, 26-Jul-2016)
    BeamDyn (unknown version, unknown date) [not called]
    InflowWind (unknown version, unknown date) [not called]
    AeroDyn14 (unknown version, unknown date) [not called]
    AeroDyn (unknown version, unknown date) [not called]
    ServoDyn (v1.06.00a-bjj, 26-Jul-2016)
    HydroDyn (v2.05.01, 27-Jul-2016)
    SubDyn (unknown version, unknown date) [not called]
    MAP (unknown version, unknown date) [not called]
    FEAMooring (unknown version, unknown date) [not called]
    MoorDyn (v1.01.02F, 8-Apr-2016)
    OrcaFlexInterface (unknown version, unknown date) [not called]
    IceFloe (unknown version, unknown date) [not called]
    IceDyn (unknown version, unknown date) [not called]


Modeling a floating offshore turbine
Description from the FAST input file: 
  FAST Certification Test #25: NREL 5.0 MW Baseline Wind Turbine with OC4-DeepCwind semi configuration, for use in offshore analysis

Interpolation order for input/output time histories: 2 (quadratic)
Number of correction iterations:  0
Number of rows in Jacobian matrix used for coupling ElastoDyn to HydroDyn:     12


   Requested Time Steps  
  -------------------------------------------------
  Component          Time Step (s)    Subcycles (-)
  -----------------  ---------------  -------------
  FAST (glue code)    1.250E-02
  ElastoDyn           1.250E-02              1
  ServoDyn            1.250E-02              1
  HydroDyn            1.250E-02              1
  MoorDyn             1.250E-02              1
  FAST output files   5.000E-02              4^-1


   Requested Channels in FAST Output File(s)  
  --------------------------------------------
  Number  Name        Units       Generated by
  ------  ----------  ----------  ------------
       1  Time        (s)         FAST
       2  Azimuth     (deg)       ElastoDyn
       3  RotSpeed    (rpm)       ElastoDyn
       4  GenSpeed    (rpm)       ElastoDyn
       5  OoPDefl1    (m)         ElastoDyn
       6  IPDefl1     (m)         ElastoDyn
       7  TwstDefl1   (deg)       ElastoDyn
       8  BldPitch1   (deg)       ElastoDyn
       9  TTDspFA     (m)         ElastoDyn
      10  TTDspSS     (m)         ElastoDyn
      11  TTDspTwst   (deg)       ElastoDyn
      12  PtfmSurge   (m)         ElastoDyn
      13  PtfmSway    (m)         ElastoDyn
      14  PtfmHeave   (m)         ElastoDyn
      15  PtfmRoll    (deg)       ElastoDyn
      16  PtfmPitch   (deg)       ElastoDyn
      17  PtfmYaw     (deg)       ElastoDyn
      18  RootFxc1    (kN)        ElastoDyn
      19  RootFyc1    (kN)        ElastoDyn
      20  RootFzc1    (kN)        ElastoDyn
      21  RootMxc1    (kN·m)      ElastoDyn
      22  RootMyc1    (kN·m)      ElastoDyn
      23  RootMzc1    (kN·m)      ElastoDyn
      24  RotTorq     (kN·m)      ElastoDyn
      25  LSSGagMya   (kN·m)      ElastoDyn
      26  LSSGagMza   (kN·m)      ElastoDyn
      27  YawBrFxp    (kN)        ElastoDyn
      28  YawBrFyp    (kN)        ElastoDyn
      29  YawBrFzp    (kN)        ElastoDyn
      30  YawBrMxp    (kN·m)      ElastoDyn
      31  YawBrMyp    (kN·m)      ElastoDyn
      32  YawBrMzp    (kN·m)      ElastoDyn
      33  TwrBsFxt    (kN)        ElastoDyn
      34  TwrBsFyt    (kN)        ElastoDyn
      35  TwrBsFzt    (kN)        ElastoDyn
      36  TwrBsMxt    (kN·m)      ElastoDyn
      37  TwrBsMyt    (kN·m)      ElastoDyn
      38  TwrBsMzt    (kN·m)      ElastoDyn
      39  GenPwr      (kW)        ServoDyn
      40  GenTq       (kN·m)      ServoDyn
      41  Wave1Elev   (m)         HydroDyn
      42  FAIRTEN1    (N)         MoorDyn
      43  FAIRTEN2    (N)         MoorDyn
      44  FAIRTEN3    (N)         MoorDyn
      45  ANCHTEN1    (N)         MoorDyn
      46  ANCHTEN2    (N)         MoorDyn
      47  ANCHTEN3    (N)         MoorDyn
