# Probe 0 (2500.001 500.001 5.001)
# Probe 1 (2500.001 500.001 15.001)
# Probe 2 (2500.001 500.001 25.001)
# Probe 3 (2500.001 500.001 35.001)
# Probe 4 (2500.001 500.001 45.001)
# Probe 5 (2500.001 500.001 55.001)
# Probe 6 (2500.001 500.001 65.001)
# Probe 7 (2500.001 500.001 75.001)
# Probe 8 (2500.001 500.001 85.001)
# Probe 9 (2500.001 500.001 95.001)
# Probe 10 (2500.001 500.001 105.001)
# Probe 11 (2500.001 500.001 115.001)
# Probe 12 (2500.001 500.001 125.001)
# Probe 13 (2500.001 500.001 135.001)
# Probe 14 (2500.001 500.001 145.001)
# Probe 15 (2500.001 500.001 155.001)
# Probe 16 (2500.001 500.001 165.001)
# Probe 17 (2500.001 500.001 175.001)
# Probe 18 (2500.001 500.001 185.001)
# Probe 19 (2500.001 500.001 195.001)
# Probe 20 (2500.001 500.001 205.001)
# Probe 21 (2500.001 500.001 215.001)
# Probe 22 (2500.001 500.001 225.001)
# Probe 23 (2500.001 500.001 235.001)
# Probe 24 (2500.001 500.001 245.001)
# Probe 25 (2500.001 500.001 255.001)
# Probe 26 (2500.001 500.001 265.001)
# Probe 27 (2500.001 500.001 275.001)
# Probe 28 (2500.001 500.001 285.001)
# Probe 29 (2500.001 500.001 295.001)
# Probe 30 (2500.001 500.001 305.001)
# Probe 31 (2500.001 500.001 315.001)
# Probe 32 (2500.001 500.001 325.001)
# Probe 33 (2500.001 500.001 335.001)
# Probe 34 (2500.001 500.001 345.001)
# Probe 35 (2500.001 500.001 355.001)
# Probe 36 (2500.001 500.001 365.001)
# Probe 37 (2500.001 500.001 375.001)
# Probe 38 (2500.001 500.001 385.001)
# Probe 39 (2500.001 500.001 395.001)
# Probe 40 (2500.001 500.001 405.001)
# Probe 41 (2500.001 500.001 415.001)
# Probe 42 (2500.001 500.001 425.001)
# Probe 43 (2500.001 500.001 435.001)
# Probe 44 (2500.001 500.001 445.001)
# Probe 45 (2500.001 500.001 455.001)
# Probe 46 (2500.001 500.001 465.001)
# Probe 47 (2500.001 500.001 475.001)
# Probe 48 (2500.001 500.001 485.001)
# Probe 49 (2500.001 500.001 495.001)
# Probe 50 (2500.001 500.001 505.001)
# Probe 51 (2500.001 500.001 515.001)
# Probe 52 (2500.001 500.001 525.001)
# Probe 53 (2500.001 500.001 535.001)
# Probe 54 (2500.001 500.001 545.001)
# Probe 55 (2500.001 500.001 555.001)
# Probe 56 (2500.001 500.001 565.001)
# Probe 57 (2500.001 500.001 575.001)
# Probe 58 (2500.001 500.001 585.001)
# Probe 59 (2500.001 500.001 595.001)
# Probe 60 (2500.001 500.001 605.001)
# Probe 61 (2500.001 500.001 615.001)
# Probe 62 (2500.001 500.001 625.001)
# Probe 63 (2500.001 500.001 635.001)
# Probe 64 (2500.001 500.001 645.001)
# Probe 65 (2500.001 500.001 655.001)
# Probe 66 (2500.001 500.001 665.001)
# Probe 67 (2500.001 500.001 675.001)
# Probe 68 (2500.001 500.001 685.001)
# Probe 69 (2500.001 500.001 695.001)
# Probe 70 (2500.001 500.001 705.001)
# Probe 71 (2500.001 500.001 715.001)
# Probe 72 (2500.001 500.001 725.001)
# Probe 73 (2500.001 500.001 735.001)
# Probe 74 (2500.001 500.001 745.001)
# Probe 75 (2500.001 500.001 755.001)
# Probe 76 (2500.001 500.001 765.001)
# Probe 77 (2500.001 500.001 775.001)
# Probe 78 (2500.001 500.001 785.001)
# Probe 79 (2500.001 500.001 795.001)
# Probe 80 (2500.001 500.001 805.001)
# Probe 81 (2500.001 500.001 815.001)
# Probe 82 (2500.001 500.001 825.001)
# Probe 83 (2500.001 500.001 835.001)
# Probe 84 (2500.001 500.001 845.001)
# Probe 85 (2500.001 500.001 855.001)
# Probe 86 (2500.001 500.001 865.001)
# Probe 87 (2500.001 500.001 875.001)
# Probe 88 (2500.001 500.001 885.001)
# Probe 89 (2500.001 500.001 895.001)
# Probe 90 (2500.001 500.001 905.001)
# Probe 91 (2500.001 500.001 915.001)
# Probe 92 (2500.001 500.001 925.001)
# Probe 93 (2500.001 500.001 935.001)
# Probe 94 (2500.001 500.001 945.001)
# Probe 95 (2500.001 500.001 955.001)
# Probe 96 (2500.001 500.001 965.001)
# Probe 97 (2500.001 500.001 975.001)
# Probe 98 (2500.001 500.001 985.001)
# Probe 99 (2500.001 500.001 995.001)
# Probe 100 (2500.001 500.001 1005.001)
# Probe 101 (2500.001 500.001 1015.001)
# Probe 102 (2500.001 500.001 1025.001)
# Probe 103 (2500.001 500.001 1035.001)
# Probe 104 (2500.001 500.001 1045.001)
# Probe 105 (2500.001 500.001 1055.001)
# Probe 106 (2500.001 500.001 1065.001)
# Probe 107 (2500.001 500.001 1075.001)
# Probe 108 (2500.001 500.001 1085.001)
# Probe 109 (2500.001 500.001 1095.001)
# Probe 110 (2500.001 500.001 1105.001)
# Probe 111 (2500.001 500.001 1115.001)
# Probe 112 (2500.001 500.001 1125.001)
# Probe 113 (2500.001 500.001 1135.001)
# Probe 114 (2500.001 500.001 1145.001)
# Probe 115 (2500.001 500.001 1155.001)
# Probe 116 (2500.001 500.001 1165.001)
# Probe 117 (2500.001 500.001 1175.001)
# Probe 118 (2500.001 500.001 1185.001)
# Probe 119 (2500.001 500.001 1195.001)
# Probe 120 (2500.001 500.001 1205.001)
# Probe 121 (2500.001 500.001 1215.001)
# Probe 122 (2500.001 500.001 1225.001)
# Probe 123 (2500.001 500.001 1235.001)
# Probe 124 (2500.001 500.001 1245.001)
# Probe 125 (2500.001 500.001 1255.001)
# Probe 126 (2500.001 500.001 1265.001)
# Probe 127 (2500.001 500.001 1275.001)
# Probe 128 (2500.001 500.001 1285.001)
# Probe 129 (2500.001 500.001 1295.001)
# Probe 130 (2500.001 500.001 1305.001)
# Probe 131 (2500.001 500.001 1315.001)
# Probe 132 (2500.001 500.001 1325.001)
# Probe 133 (2500.001 500.001 1335.001)
# Probe 134 (2500.001 500.001 1345.001)
# Probe 135 (2500.001 500.001 1355.001)
# Probe 136 (2500.001 500.001 1365.001)
# Probe 137 (2500.001 500.001 1375.001)
# Probe 138 (2500.001 500.001 1385.001)
# Probe 139 (2500.001 500.001 1395.001)
# Probe 140 (2500.001 500.001 1405.001)
# Probe 141 (2500.001 500.001 1415.001)
# Probe 142 (2500.001 500.001 1425.001)
# Probe 143 (2500.001 500.001 1435.001)
# Probe 144 (2500.001 500.001 1445.001)
# Probe 145 (2500.001 500.001 1455.001)
# Probe 146 (2500.001 500.001 1465.001)
# Probe 147 (2500.001 500.001 1475.001)
# Probe 148 (2500.001 500.001 1485.001)
# Probe 149 (2500.001 500.001 1495.001)
# Probe 150 (2500.001 500.001 1505.001)
# Probe 151 (2500.001 500.001 1515.001)
# Probe 152 (2500.001 500.001 1525.001)
# Probe 153 (2500.001 500.001 1535.001)
# Probe 154 (2500.001 500.001 1545.001)
# Probe 155 (2500.001 500.001 1555.001)
# Probe 156 (2500.001 500.001 1565.001)
# Probe 157 (2500.001 500.001 1575.001)
# Probe 158 (2500.001 500.001 1585.001)
# Probe 159 (2500.001 500.001 1595.001)
# Probe 160 (2500.001 500.001 1605.001)
# Probe 161 (2500.001 500.001 1615.001)
# Probe 162 (2500.001 500.001 1625.001)
# Probe 163 (2500.001 500.001 1635.001)
# Probe 164 (2500.001 500.001 1645.001)
# Probe 165 (2500.001 500.001 1655.001)
# Probe 166 (2500.001 500.001 1665.001)
# Probe 167 (2500.001 500.001 1675.001)
# Probe 168 (2500.001 500.001 1685.001)
# Probe 169 (2500.001 500.001 1695.001)
# Probe 170 (2500.001 500.001 1705.001)
# Probe 171 (2500.001 500.001 1715.001)
# Probe 172 (2500.001 500.001 1725.001)
# Probe 173 (2500.001 500.001 1735.001)
# Probe 174 (2500.001 500.001 1745.001)
# Probe 175 (2500.001 500.001 1755.001)
# Probe 176 (2500.001 500.001 1765.001)
# Probe 177 (2500.001 500.001 1775.001)
# Probe 178 (2500.001 500.001 1785.001)
# Probe 179 (2500.001 500.001 1795.001)
# Probe 180 (2500.001 500.001 1805.001)
# Probe 181 (2500.001 500.001 1815.001)
# Probe 182 (2500.001 500.001 1825.001)
# Probe 183 (2500.001 500.001 1835.001)
# Probe 184 (2500.001 500.001 1845.001)
# Probe 185 (2500.001 500.001 1855.001)
# Probe 186 (2500.001 500.001 1865.001)
# Probe 187 (2500.001 500.001 1875.001)
# Probe 188 (2500.001 500.001 1885.001)
# Probe 189 (2500.001 500.001 1895.001)
# Probe 190 (2500.001 500.001 1905.001)
# Probe 191 (2500.001 500.001 1915.001)
# Probe 192 (2500.001 500.001 1925.001)
# Probe 193 (2500.001 500.001 1935.001)
# Probe 194 (2500.001 500.001 1945.001)
# Probe 195 (2500.001 500.001 1955.001)
# Probe 196 (2500.001 500.001 1965.001)
# Probe 197 (2500.001 500.001 1975.001)
# Probe 198 (2500.001 500.001 1985.001)
# Probe 199 (2500.001 500.001 1995.001)
#             Probe                   0                   1                   2                   3                   4                   5                   6                   7                   8                   9                  10                  11                  12                  13                  14                  15                  16                  17                  18                  19                  20                  21                  22                  23                  24                  25                  26                  27                  28                  29                  30                  31                  32                  33                  34                  35                  36                  37                  38                  39                  40                  41                  42                  43                  44                  45                  46                  47                  48                  49                  50                  51                  52                  53                  54                  55                  56                  57                  58                  59                  60                  61                  62                  63                  64                  65                  66                  67                  68                  69                  70                  71                  72                  73                  74                  75                  76                  77                  78                  79                  80                  81                  82                  83                  84                  85                  86                  87                  88                  89                  90                  91                  92                  93                  94                  95                  96                  97                  98                  99                 100                 101                 102                 103                 104                 105                 106                 107                 108                 109                 110                 111                 112                 113                 114                 115                 116                 117                 118                 119                 120                 121                 122                 123                 124                 125                 126                 127                 128                 129                 130                 131                 132                 133                 134                 135                 136                 137                 138                 139                 140                 141                 142                 143                 144                 145                 146                 147                 148                 149                 150                 151                 152                 153                 154                 155                 156                 157                 158                 159                 160                 161                 162                 163                 164                 165                 166                 167                 168                 169                 170                 171                 172                 173                 174                 175                 176                 177                 178                 179                 180                 181                 182                 183                 184                 185                 186                 187                 188                 189                 190                 191                 192                 193                 194                 195                 196                 197                 198                 199
#              Time
               0.04             -1e+300             -1e+300             -1e+300             -1e+300             -1e+300             -1e+300             -1e+300             -1e+300             -1e+300             -1e+300             -1e+300             -1e+300             -1e+300             -1e+300             -1e+300             -1e+300             -1e+300             -1e+300             -1e+300             -1e+300             -1e+300             -1e+300             -1e+300             -1e+300             -1e+300             -1e+300             -1e+300             -1e+300             -1e+300             -1e+300             -1e+300             -1e+300             -1e+300             -1e+300             -1e+300             -1e+300             -1e+300             -1e+300             -1e+300             -1e+300             -1e+300             -1e+300             -1e+300             -1e+300             -1e+300             -1e+300             -1e+300             -1e+300             -1e+300             -1e+300             -1e+300             -1e+300             -1e+300             -1e+300             -1e+300             -1e+300             -1e+300             -1e+300             -1e+300             -1e+300             -1e+300             -1e+300             -1e+300             -1e+300             -1e+300             -1e+300             -1e+300             -1e+300             -1e+300             -1e+300             -1e+300             -1e+300             -1e+300             -1e+300             -1e+300             -1e+300             -1e+300             -1e+300             -1e+300             -1e+300             -1e+300             -1e+300             -1e+300             -1e+300             -1e+300             -1e+300             -1e+300             -1e+300             -1e+300             -1e+300             -1e+300             -1e+300             -1e+300             -1e+300             -1e+300             -1e+300             -1e+300             -1e+300             -1e+300             -1e+300             -1e+300             -1e+300             -1e+300             -1e+300             -1e+300             -1e+300             -1e+300             -1e+300             -1e+300             -1e+300             -1e+300             -1e+300             -1e+300             -1e+300             -1e+300             -1e+300             -1e+300             -1e+300             -1e+300             -1e+300             -1e+300             -1e+300             -1e+300             -1e+300             -1e+300             -1e+300             -1e+300             -1e+300             -1e+300             -1e+300             -1e+300             -1e+300             -1e+300             -1e+300             -1e+300             -1e+300             -1e+300             -1e+300             -1e+300             -1e+300             -1e+300             -1e+300             -1e+300             -1e+300             -1e+300             -1e+300             -1e+300             -1e+300             -1e+300             -1e+300             -1e+300             -1e+300             -1e+300             -1e+300             -1e+300             -1e+300             -1e+300             -1e+300             -1e+300             -1e+300             -1e+300             -1e+300             -1e+300             -1e+300             -1e+300             -1e+300             -1e+300             -1e+300             -1e+300             -1e+300             -1e+300             -1e+300             -1e+300             -1e+300             -1e+300             -1e+300             -1e+300             -1e+300             -1e+300             -1e+300             -1e+300             -1e+300             -1e+300             -1e+300             -1e+300             -1e+300             -1e+300             -1e+300             -1e+300             -1e+300             -1e+300             -1e+300             -1e+300             -1e+300             -1e+300             -1e+300             -1e+300             -1e+300             -1e+300             -1e+300
               0.08             -1e+300             -1e+300             -1e+300             -1e+300             -1e+300             -1e+300             -1e+300             -1e+300             -1e+300             -1e+300             -1e+300             -1e+300             -1e+300             -1e+300             -1e+300             -1e+300             -1e+300             -1e+300             -1e+300             -1e+300             -1e+300             -1e+300             -1e+300             -1e+300             -1e+300             -1e+300             -1e+300             -1e+300             -1e+300             -1e+300             -1e+300             -1e+300             -1e+300             -1e+300             -1e+300             -1e+300             -1e+300             -1e+300             -1e+300             -1e+300             -1e+300             -1e+300             -1e+300             -1e+300             -1e+300             -1e+300             -1e+300             -1e+300             -1e+300             -1e+300             -1e+300             -1e+300             -1e+300             -1e+300             -1e+300             -1e+300             -1e+300             -1e+300             -1e+300             -1e+300             -1e+300             -1e+300             -1e+300             -1e+300             -1e+300             -1e+300             -1e+300             -1e+300             -1e+300             -1e+300             -1e+300             -1e+300             -1e+300             -1e+300             -1e+300             -1e+300             -1e+300             -1e+300             -1e+300             -1e+300             -1e+300             -1e+300             -1e+300             -1e+300             -1e+300             -1e+300             -1e+300             -1e+300             -1e+300             -1e+300             -1e+300             -1e+300             -1e+300             -1e+300             -1e+300             -1e+300             -1e+300             -1e+300             -1e+300             -1e+300             -1e+300             -1e+300             -1e+300             -1e+300             -1e+300             -1e+300             -1e+300             -1e+300             -1e+300             -1e+300             -1e+300             -1e+300             -1e+300             -1e+300             -1e+300             -1e+300             -1e+300             -1e+300             -1e+300             -1e+300             -1e+300             -1e+300             -1e+300             -1e+300             -1e+300             -1e+300             -1e+300             -1e+300             -1e+300             -1e+300             -1e+300             -1e+300             -1e+300             -1e+300             -1e+300             -1e+300             -1e+300             -1e+300             -1e+300             -1e+300             -1e+300             -1e+300             -1e+300             -1e+300             -1e+300             -1e+300             -1e+300             -1e+300             -1e+300             -1e+300             -1e+300             -1e+300             -1e+300             -1e+300             -1e+300             -1e+300             -1e+300             -1e+300             -1e+300             -1e+300             -1e+300             -1e+300             -1e+300             -1e+300             -1e+300             -1e+300             -1e+300             -1e+300             -1e+300             -1e+300             -1e+300             -1e+300             -1e+300             -1e+300             -1e+300             -1e+300             -1e+300             -1e+300             -1e+300             -1e+300             -1e+300             -1e+300             -1e+300             -1e+300             -1e+300             -1e+300             -1e+300             -1e+300             -1e+300             -1e+300             -1e+300             -1e+300             -1e+300             -1e+300             -1e+300             -1e+300             -1e+300             -1e+300             -1e+300             -1e+300
               0.12             -1e+300             -1e+300             -1e+300             -1e+300             -1e+300             -1e+300             -1e+300             -1e+300             -1e+300             -1e+300             -1e+300             -1e+300             -1e+300             -1e+300             -1e+300             -1e+300             -1e+300             -1e+300             -1e+300             -1e+300             -1e+300             -1e+300             -1e+300             -1e+300             -1e+300             -1e+300             -1e+300             -1e+300             -1e+300             -1e+300             -1e+300             -1e+300             -1e+300             -1e+300             -1e+300             -1e+300             -1e+300             -1e+300             -1e+300             -1e+300             -1e+300             -1e+300             -1e+300             -1e+300             -1e+300             -1e+300             -1e+300             -1e+300             -1e+300             -1e+300             -1e+300             -1e+300             -1e+300             -1e+300             -1e+300             -1e+300             -1e+300             -1e+300             -1e+300             -1e+300             -1e+300             -1e+300             -1e+300             -1e+300             -1e+300             -1e+300             -1e+300             -1e+300             -1e+300             -1e+300             -1e+300             -1e+300             -1e+300             -1e+300             -1e+300             -1e+300             -1e+300             -1e+300             -1e+300             -1e+300             -1e+300             -1e+300             -1e+300             -1e+300             -1e+300             -1e+300             -1e+300             -1e+300             -1e+300             -1e+300             -1e+300             -1e+300             -1e+300             -1e+300             -1e+300             -1e+300             -1e+300             -1e+300             -1e+300             -1e+300             -1e+300             -1e+300             -1e+300             -1e+300             -1e+300             -1e+300             -1e+300             -1e+300             -1e+300             -1e+300             -1e+300             -1e+300             -1e+300             -1e+300             -1e+300             -1e+300             -1e+300             -1e+300             -1e+300             -1e+300             -1e+300             -1e+300             -1e+300             -1e+300             -1e+300             -1e+300             -1e+300             -1e+300             -1e+300             -1e+300             -1e+300             -1e+300             -1e+300             -1e+300             -1e+300             -1e+300             -1e+300             -1e+300             -1e+300             -1e+300             -1e+300             -1e+300             -1e+300             -1e+300             -1e+300             -1e+300             -1e+300             -1e+300             -1e+300             -1e+300             -1e+300             -1e+300             -1e+300             -1e+300             -1e+300             -1e+300             -1e+300             -1e+300             -1e+300             -1e+300             -1e+300             -1e+300             -1e+300             -1e+300             -1e+300             -1e+300             -1e+300             -1e+300             -1e+300             -1e+300             -1e+300             -1e+300             -1e+300             -1e+300             -1e+300             -1e+300             -1e+300             -1e+300             -1e+300             -1e+300             -1e+300             -1e+300             -1e+300             -1e+300             -1e+300             -1e+300             -1e+300             -1e+300             -1e+300             -1e+300             -1e+300             -1e+300             -1e+300             -1e+300             -1e+300             -1e+300             -1e+300             -1e+300             -1e+300             -1e+300
               0.16             -1e+300             -1e+300             -1e+300             -1e+300             -1e+300             -1e+300             -1e+300             -1e+300             -1e+300             -1e+300             -1e+300             -1e+300             -1e+300             -1e+300             -1e+300             -1e+300             -1e+300             -1e+300             -1e+300             -1e+300             -1e+300             -1e+300             -1e+300             -1e+300             -1e+300             -1e+300             -1e+300             -1e+300             -1e+300             -1e+300             -1e+300             -1e+300             -1e+300             -1e+300             -1e+300             -1e+300             -1e+300             -1e+300             -1e+300             -1e+300             -1e+300             -1e+300             -1e+300             -1e+300             -1e+300             -1e+300             -1e+300             -1e+300             -1e+300             -1e+300             -1e+300             -1e+300             -1e+300             -1e+300             -1e+300             -1e+300             -1e+300             -1e+300             -1e+300             -1e+300             -1e+300             -1e+300             -1e+300             -1e+300             -1e+300             -1e+300             -1e+300             -1e+300             -1e+300             -1e+300             -1e+300             -1e+300             -1e+300             -1e+300             -1e+300             -1e+300             -1e+300             -1e+300             -1e+300             -1e+300             -1e+300             -1e+300             -1e+300             -1e+300             -1e+300             -1e+300             -1e+300             -1e+300             -1e+300             -1e+300             -1e+300             -1e+300             -1e+300             -1e+300             -1e+300             -1e+300             -1e+300             -1e+300             -1e+300             -1e+300             -1e+300             -1e+300             -1e+300             -1e+300             -1e+300             -1e+300             -1e+300             -1e+300             -1e+300             -1e+300             -1e+300             -1e+300             -1e+300             -1e+300             -1e+300             -1e+300             -1e+300             -1e+300             -1e+300             -1e+300             -1e+300             -1e+300             -1e+300             -1e+300             -1e+300             -1e+300             -1e+300             -1e+300             -1e+300             -1e+300             -1e+300             -1e+300             -1e+300             -1e+300             -1e+300             -1e+300             -1e+300             -1e+300             -1e+300             -1e+300             -1e+300             -1e+300             -1e+300             -1e+300             -1e+300             -1e+300             -1e+300             -1e+300             -1e+300             -1e+300             -1e+300             -1e+300             -1e+300             -1e+300             -1e+300             -1e+300             -1e+300             -1e+300             -1e+300             -1e+300             -1e+300             -1e+300             -1e+300             -1e+300             -1e+300             -1e+300             -1e+300             -1e+300             -1e+300             -1e+300             -1e+300             -1e+300             -1e+300             -1e+300             -1e+300             -1e+300             -1e+300             -1e+300             -1e+300             -1e+300             -1e+300             -1e+300             -1e+300             -1e+300             -1e+300             -1e+300             -1e+300             -1e+300             -1e+300             -1e+300             -1e+300             -1e+300             -1e+300             -1e+300             -1e+300             -1e+300             -1e+300             -1e+300             -1e+300             -1e+300