
Predictions were generated on 26-Mar-2019 at 06:11:00 using FAST (v8.16.00a-bjj, 27-Jul-2016), compiled as a 64-bit application using double precision
 linked with  NWTC Subroutine Library (v2.09.00, 23-Jul-2016); ElastoDyn (v1.04.00a-bjj, 26-Jul-2016); OpenFOAM Integration (v1.00.00a-bjj, 11-Aug-2015); AeroDyn (v15.03.00, 27-Jul-2016); HydroDyn (v2.05.01, 27-Jul-2016)

Description from the FAST input file: FAST Certification Test #01: NREL 5.0 MW Baseline Wind Turbine (Onshore)

Time      	Wind1VelX 	Wind1VelY 	Wind1VelZ 	OoPDefl1  	IPDefl1   	TwstDefl1 	BldPitch1 	Azimuth   	RotSpeed  	RotTorq   	GenSpeed  	TTDspFA   	TTDspSS   	TTDspTwst 	Spn2MLxb1 	Spn2MLyb1 	RootFxb1  	RootFyb1  	RootFzb1  	RootMxb1  	RootMyb1  	RootMzb1  	LSSGagMya 	LSSGagMza 	YawBrFxp  	YawBrFyp  	YawBrFzp  	YawBrMxp  	YawBrMyp  	YawBrMzp  	TwrBsFxt  	TwrBsFyt  	TwrBsFzt  	TwrBsMxt  	TwrBsMyt  	TwrBsMzt  	Wave1Elev 	HydroFxi  	HydroFyi  	HydroFzi  	HydroMxi  	HydroMyi  	HydroMzi  
(s)       	(m/s)     	(m/s)     	(m/s)     	(m)       	(m)       	(deg)     	(deg)     	(deg)     	(rpm)     	(kN·m)    	(rpm)     	(m)       	(m)       	(deg)     	(kN·m)    	(kN·m)    	(kN)      	(kN)      	(kN)      	(kN·m)    	(kN·m)    	(kN·m)    	(kN·m)    	(kN·m)    	(kN)      	(kN)      	(kN)      	(kN·m)    	(kN·m)    	(kN·m)    	(kN)      	(kN)      	(kN)      	(kN·m)    	(kN·m)    	(kN·m)    	(m)       	(N)       	(N)       	(N)       	(N·m)     	(N·m)     	(N·m)     
    0.0000	 8.000E+00	 0.000E+00	 0.000E+00	 0.000E+00	 0.000E+00	 0.000E+00	 0.000E+00	 0.000E+00	 9.155E+00	 3.194E+01	 8.881E+02	 0.000E+00	 0.000E+00	 0.000E+00	-8.810E+00	 6.050E+00	 6.097E+00	-2.932E-01	 1.867E+02	 1.554E+01	 1.727E+01	-3.798E+01	-1.917E+03	-4.922E+01	 1.244E+01	 1.307E+00	-3.321E+03	 2.793E+01	-3.861E+02	 3.492E-13	-9.882E+00	-8.704E-01	-6.728E+03	 1.589E+01	-2.905E+02	 3.492E-13	 1.614E+00	-1.218E+07	-3.469E-13	 4.558E+07	 2.732E-12	 1.809E+08	 3.553E-10
    0.0100	 8.000E+00	 0.000E+00	 0.000E+00	 1.620E-03	-3.641E-05	 0.000E+00	 0.000E+00	 5.493E-01	 9.155E+00	 2.307E+02	 8.881E+02	-9.762E-06	-2.496E-07	 0.000E+00	-1.245E+01	-2.469E+01	 1.982E+01	-5.930E+00	 1.861E+02	 8.543E+01	 2.134E+02	 6.717E+01	-1.932E+03	-2.036E+01	 1.570E+01	 9.919E+00	-3.326E+03	 2.109E+02	-4.071E+02	 1.671E-12	-8.297E+00	-6.501E+00	-6.733E+03	 1.185E+02	-2.608E+02	-1.119E-05	 1.596E+00	-1.204E+07	 0.000E+00	 4.560E+07	 5.573E-12	 1.800E+08	 1.626E-14
    0.0200	 8.000E+00	 0.000E+00	 0.000E+00	 9.773E-03	-8.111E-04	 0.000E+00	 0.000E+00	 1.099E+00	 9.155E+00	 2.379E+02	 8.881E+02	-2.970E-05	-2.515E-06	 0.000E+00	-1.411E+01	-1.520E+01	 1.954E+01	-6.663E+00	 1.874E+02	 9.291E+01	 2.189E+02	 1.895E+01	-1.948E+03	 5.709E+00	 1.546E+01	 9.930E+00	-3.327E+03	 2.187E+02	-4.273E+02	-9.060E-13	-7.133E+00	-6.348E+00	-6.734E+03	 1.122E+02	-2.282E+02	-4.299E-05	 1.578E+00	-1.191E+07	 3.469E-13	 4.562E+07	-2.776E-12	 1.791E+08	-3.553E-10
    0.0300	 8.000E+00	 0.000E+00	 0.000E+00	 2.741E-02	-2.916E-03	 0.000E+00	 0.000E+00	 1.648E+00	 9.155E+00	 2.976E+02	 8.881E+02	-5.157E-05	-8.371E-06	 0.000E+00	-1.739E+01	-1.596E+01	 2.504E+01	-9.022E+00	 1.874E+02	 1.266E+02	 3.259E+02	 1.814E+02	-1.942E+03	 2.463E+01	 1.524E+01	 1.192E+01	-3.330E+03	 2.748E+02	-4.332E+02	-1.327E-12	-3.912E+00	-7.130E+00	-6.737E+03	 1.186E+02	-1.480E+02	-1.184E-04	 1.560E+00	-1.177E+07	 3.469E-13	 4.564E+07	 5.529E-12	 1.782E+08	 7.105E-10
    0.0400	 8.000E+00	 0.000E+00	 0.000E+00	 5.051E-02	-5.659E-03	 0.000E+00	 0.000E+00	 2.197E+00	 9.155E+00	 2.935E+02	 8.881E+02	-8.027E-05	-1.746E-05	 0.000E+00	-1.570E+01	 1.478E+00	 2.294E+01	-8.677E+00	 1.882E+02	 1.216E+02	 3.348E+02	-1.380E+02	-1.955E+03	 4.452E+01	 1.378E+01	 1.091E+01	-3.331E+03	 2.729E+02	-4.566E+02	-1.000E-12	-1.135E+00	-5.700E+00	-6.738E+03	 8.124E+01	-7.022E+01	-2.034E-04	 1.542E+00	-1.164E+07	-8.674E-13	 4.566E+07	-9.758E-12	 1.773E+08	 3.553E-10
    0.0500	 8.023E+00	 1.422E-04	-1.233E-03	 7.910E-02	-9.180E-03	 0.000E+00	 0.000E+00	 2.747E+00	 9.155E+00	 3.218E+02	 8.881E+02	-1.125E-04	-3.061E-05	 0.000E+00	-2.053E+01	 1.691E+01	 2.476E+01	-1.052E+01	 1.885E+02	 1.506E+02	 4.049E+02	 1.131E+02	-1.962E+03	 6.292E+01	 1.256E+01	 1.107E+01	-3.334E+03	 3.012E+02	-4.785E+02	-1.894E-13	 2.853E+00	-4.743E+00	-6.741E+03	 4.918E+01	 3.617E+01	-3.389E-04	 1.523E+00	-1.150E+07	 5.204E-13	 4.568E+07	 2.754E-12	 1.764E+08	 1.776E-10
    0.0600	 8.023E+00	 1.422E-04	-1.233E-03	 1.137E-01	-1.351E-02	 0.000E+00	 0.000E+00	 3.296E+00	 9.155E+00	 5.507E+02	 8.881E+02	-1.486E-04	-4.821E-05	 0.000E+00	-2.499E+01	 9.806E+00	 4.669E+01	-1.629E+01	 1.882E+02	 2.345E+02	 7.507E+02	 2.457E+02	-2.015E+03	 9.722E+01	 1.740E+01	 1.979E+01	-3.344E+03	 5.142E+02	-5.514E+02	-1.614E-12	 8.133E+00	-9.018E+00	-6.751E+03	 1.097E+02	 1.620E+02	-7.049E-04	 1.505E+00	-1.136E+07	-1.214E-12	 4.570E+07	 5.594E-12	 1.755E+08	 1.776E-10
    0.0700	 8.023E+00	 1.422E-04	-1.233E-03	 1.538E-01	-1.854E-02	 0.000E+00	 0.000E+00	 3.845E+00	 9.155E+00	 3.338E+02	 8.881E+02	-1.710E-04	-7.219E-05	 0.000E+00	-2.277E+01	 7.484E+01	 1.744E+01	-1.064E+01	 1.902E+02	 1.606E+02	 4.252E+02	-2.826E+02	-1.986E+03	 1.032E+02	 7.771E+00	 8.545E+00	-3.337E+03	 3.185E+02	-5.365E+02	-8.168E-13	 1.081E+01	 3.494E-02	-6.745E+03	-7.959E+01	 2.636E+02	-6.038E-04	 1.487E+00	-1.123E+07	-1.735E-13	 4.572E+07	 1.388E-12	 1.746E+08	-5.421E-15
    0.0800	 8.023E+00	 1.422E-04	-1.233E-03	 1.991E-01	-2.428E-02	 0.000E+00	 0.000E+00	 4.394E+00	 9.155E+00	 3.479E+02	 8.881E+02	-1.921E-04	-1.020E-04	 0.000E+00	-2.724E+01	 9.852E+01	 1.863E+01	-1.236E+01	 1.904E+02	 1.923E+02	 5.150E+02	 8.667E+01	-2.011E+03	 1.292E+02	 6.681E+00	 7.260E+00	-3.341E+03	 3.355E+02	-5.812E+02	-8.668E-13	 1.533E+01	 2.894E+00	-6.749E+03	-1.578E+02	 3.880E+02	-9.035E-04	 1.469E+00	-1.109E+07	 1.735E-13	 4.574E+07	 4.163E-12	 1.736E+08	 1.084E-14
    0.0900	 8.027E+00	 7.145E-05	-5.832E-04	 2.501E-01	-3.079E-02	 0.000E+00	 0.000E+00	 4.944E+00	 9.155E+00	 5.168E+02	 8.881E+02	-2.313E-04	-1.365E-04	 0.000E+00	-3.008E+01	 1.195E+02	 3.030E+01	-1.594E+01	 1.904E+02	 2.487E+02	 7.399E+02	-6.786E+01	-2.062E+03	 1.628E+02	 8.992E+00	 1.271E+01	-3.350E+03	 4.945E+02	-6.558E+02	 4.526E-13	 2.058E+01	 1.494E+00	-6.757E+03	-1.582E+02	 5.235E+02	-1.443E-03	 1.451E+00	-1.096E+07	-1.735E-13	 4.576E+07	 1.253E-11	 1.727E+08	 1.355E-14
    0.1000	 8.027E+00	 7.145E-05	-5.832E-04	 3.065E-01	-3.796E-02	 0.000E+00	 0.000E+00	 5.493E+00	 9.155E+00	 6.475E+02	 8.881E+02	-2.662E-04	-1.778E-04	 0.000E+00	-3.479E+01	 1.245E+02	 4.234E+01	-2.003E+01	 1.902E+02	 3.173E+02	 1.001E+03	 2.792E+02	-2.076E+03	 1.922E+02	 9.812E+00	 1.624E+01	-3.358E+03	 6.191E+02	-6.987E+02	-5.753E-13	 2.677E+01	 1.584E+00	-6.765E+03	-1.889E+02	 6.824E+02	-1.949E-03	 1.433E+00	-1.082E+07	 1.041E-12	 4.579E+07	 4.163E-12	 1.718E+08	 3.553E-10
    0.1100	 8.027E+00	 7.145E-05	-5.832E-04	 3.674E-01	-4.570E-02	 0.000E+00	 0.000E+00	 6.042E+00	 9.155E+00	 6.710E+02	 8.881E+02	-2.847E-04	-2.271E-04	 0.000E+00	-3.194E+01	 1.725E+02	 4.018E+01	-2.000E+01	 1.913E+02	 3.219E+02	 1.052E+03	-2.164E+02	-2.104E+03	 2.094E+02	 8.242E+00	 1.477E+01	-3.362E+03	 6.454E+02	-7.474E+02	-1.628E-13	 3.095E+01	 5.214E+00	-6.769E+03	-2.878E+02	 8.037E+02	-2.301E-03	 1.415E+00	-1.069E+07	 6.939E-13	 4.581E+07	-5.508E-12	 1.709E+08	 7.105E-10
    0.1200	 8.027E+00	 7.145E-05	-5.832E-04	 4.318E-01	-5.396E-02	 0.000E+00	 0.000E+00	 6.592E+00	 9.155E+00	 6.916E+02	 8.881E+02	-2.892E-04	-2.847E-04	 0.000E+00	-3.599E+01	 2.102E+02	 4.168E+01	-2.183E+01	 1.914E+02	 3.573E+02	 1.168E+03	 1.004E+02	-2.125E+03	 2.356E+02	 7.616E+00	 1.299E+01	-3.368E+03	 6.696E+02	-7.930E+02	-1.195E-14	 3.526E+01	 9.296E+00	-6.775E+03	-3.972E+02	 9.252E+02	-2.695E-03	 1.397E+00	-1.055E+07	 2.429E-12	 4.583E+07	-5.551E-12	 1.700E+08	 3.553E-10
    0.1300	 8.040E+00	 8.719E-04	-2.504E-03	 5.006E-01	-6.280E-02	 0.000E+00	 0.000E+00	 7.141E+00	 9.155E+00	 7.729E+02	 8.881E+02	-2.818E-04	-3.503E-04	 0.000E+00	-3.706E+01	 2.489E+02	 4.407E+01	-2.346E+01	 1.920E+02	 3.913E+02	 1.299E+03	-1.060E+02	-2.180E+03	 2.708E+02	 8.827E+00	 1.375E+01	-3.374E+03	 7.499E+02	-8.703E+02	-4.436E-13	 3.814E+01	 1.189E+01	-6.781E+03	-4.805E+02	 1.012E+03	-3.315E-03	 1.378E+00	-1.042E+07	 8.674E-13	 4.585E+07	-4.207E-12	 1.691E+08	 1.599E-09
    0.1400	 8.040E+00	 8.719E-04	-2.504E-03	 5.735E-01	-7.216E-02	 0.000E+00	 0.000E+00	 7.690E+00	 9.155E+00	 9.430E+02	 8.881E+02	-2.597E-04	-4.244E-04	 0.000E+00	-4.103E+01	 2.631E+02	 6.247E+01	-2.891E+01	 1.914E+02	 4.778E+02	 1.655E+03	 2.563E+02	-2.198E+03	 2.955E+02	 1.241E+01	 1.825E+01	-3.386E+03	 9.116E+02	-9.177E+02	 1.357E-14	 4.315E+01	 1.218E+01	-6.793E+03	-5.222E+02	 1.139E+03	-4.038E-03	 1.360E+00	-1.028E+07	-3.469E-13	 4.587E+07	 1.475E-12	 1.681E+08	 1.776E-10
    0.1500	 8.040E+00	 8.719E-04	-2.504E-03	 6.498E-01	-8.199E-02	 0.000E+00	 0.000E+00	 8.240E+00	 9.155E+00	 8.885E+02	 8.881E+02	-2.067E-04	-5.082E-04	 0.000E+00	-3.814E+01	 3.246E+02	 5.018E+01	-2.697E+01	 1.930E+02	 4.638E+02	 1.603E+03	-2.123E+02	-2.244E+03	 3.270E+02	 1.088E+01	 1.274E+01	-3.388E+03	 8.678E+02	-9.801E+02	-6.529E-13	 4.333E+01	 1.913E+01	-6.795E+03	-6.877E+02	 1.172E+03	-4.173E-03	 1.342E+00	-1.015E+07	 6.939E-13	 4.589E+07	-5.529E-12	 1.672E+08	-5.329E-10
    0.1600	 8.040E+00	 8.719E-04	-2.504E-03	 7.290E-01	-9.225E-02	 0.000E+00	 0.000E+00	 8.789E+00	 9.155E+00	 9.075E+02	 8.881E+02	-1.270E-04	-6.014E-04	 0.000E+00	-4.026E+01	 3.654E+02	 5.349E+01	-2.902E+01	 1.932E+02	 5.050E+02	 1.765E+03	 8.723E+01	-2.246E+03	 3.505E+02	 1.153E+01	 1.041E+01	-3.395E+03	 8.914E+02	-1.007E+03	-1.040E-12	 4.557E+01	 2.407E+01	-6.802E+03	-8.157E+02	 1.243E+03	-4.563E-03	 1.324E+00	-1.001E+07	-1.041E-12	 4.591E+07	-1.475E-12	 1.663E+08	 5.329E-10
    0.1700	 8.049E+00	 1.296E-03	-2.803E-03	 8.114E-01	-1.030E-01	 0.000E+00	 0.000E+00	 9.338E+00	 9.155E+00	 1.033E+03	 8.881E+02	-2.892E-05	-7.032E-04	 0.000E+00	-3.985E+01	 4.048E+02	 6.282E+01	-3.206E+01	 1.935E+02	 5.595E+02	 2.001E+03	-7.898E+01	-2.327E+03	 3.916E+02	 1.713E+01	 1.282E+01	-3.404E+03	 1.012E+03	-1.105E+03	-4.146E-13	 4.545E+01	 2.585E+01	-6.811E+03	-8.835E+02	 1.253E+03	-5.279E-03	 1.306E+00	-9.876E+06	 5.204E-13	 4.593E+07	-2.819E-12	 1.654E+08	-5.329E-10
    0.1800	 8.049E+00	 1.296E-03	-2.803E-03	 8.967E-01	-1.142E-01	 0.000E+00	 0.000E+00	 9.888E+00	 9.155E+00	 1.166E+03	 8.881E+02	 1.010E-04	-8.143E-04	 0.000E+00	-4.187E+01	 4.296E+02	 7.731E+01	-3.660E+01	 1.932E+02	 6.366E+02	 2.322E+03	 1.531E+02	-2.332E+03	 4.039E+02	 2.132E+01	 1.558E+01	-3.415E+03	 1.140E+03	-1.133E+03	 6.325E-14	 4.725E+01	 2.732E+01	-6.822E+03	-9.436E+02	 1.307E+03	-5.562E-03	 1.288E+00	-9.741E+06	 8.674E-13	 4.595E+07	-1.453E-12	 1.645E+08	 5.329E-10
    0.1900	 8.049E+00	 1.296E-03	-2.803E-03	 9.841E-01	-1.258E-01	 0.000E+00	 0.000E+00	 1.044E+01	 9.155E+00	 1.130E+03	 8.881E+02	 2.764E-04	-9.356E-04	 0.000E+00	-3.930E+01	 4.968E+02	 7.005E+01	-3.594E+01	 1.946E+02	 6.420E+02	 2.336E+03	-1.241E+02	-2.392E+03	 4.596E+02	 2.341E+01	 1.097E+01	-3.419E+03	 1.113E+03	-1.207E+03	-1.011E-13	 4.393E+01	 3.352E+01	-6.826E+03	-1.089E+03	 1.256E+03	-5.669E-03	 1.270E+00	-9.607E+06	 6.939E-13	 4.597E+07	-7.026E-12	 1.635E+08	-7.106E-10
    0.2000	 8.049E+00	 1.296E-03	-2.803E-03	 1.074E+00	-1.378E-01	 0.000E+00	 0.000E+00	 1.099E+01	 9.155E+00	 1.154E+03	 8.881E+02	 4.922E-04	-1.066E-03	 0.000E+00	-3.888E+01	 5.414E+02	 7.396E+01	-3.798E+01	 1.949E+02	 6.862E+02	 2.517E+03	 4.542E+01	-2.381E+03	 4.807E+02	 2.581E+01	 9.141E+00	-3.427E+03	 1.141E+03	-1.216E+03	-3.009E-13	 4.320E+01	 3.772E+01	-6.834E+03	-1.194E+03	 1.258E+03	-5.679E-03	 1.252E+00	-9.472E+06	-5.204E-13	 4.599E+07	-2.786E-12	 1.626E+08	 7.106E-10
    0.2100	 8.060E+00	 1.820E-03	-3.226E-03	 1.166E+00	-1.503E-01	 0.000E+00	 0.000E+00	 1.154E+01	 9.155E+00	 1.260E+03	 8.881E+02	 7.435E-04	-1.206E-03	 0.000E+00	-3.672E+01	 5.812E+02	 8.326E+01	-4.094E+01	 1.954E+02	 7.442E+02	 2.767E+03	-4.403E+01	-2.471E+03	 5.263E+02	 3.389E+01	 1.112E+01	-3.436E+03	 1.243E+03	-1.316E+03	 1.636E-13	 3.949E+01	 3.917E+01	-6.844E+03	-1.243E+03	 1.189E+03	-5.941E-03	 1.225E+00	-9.334E+06	 1.041E-12	 4.600E+07	 5.529E-12	 1.616E+08	-1.084E-14
    0.2200	 8.060E+00	 1.820E-03	-3.226E-03	 1.259E+00	-1.631E-01	 0.000E+00	 0.000E+00	 1.208E+01	 9.155E+00	 1.374E+03	 8.881E+02	 1.042E-03	-1.355E-03	 0.000E+00	-3.560E+01	 6.151E+02	 9.670E+01	-4.486E+01	 1.952E+02	 8.169E+02	 3.074E+03	 7.768E+01	-2.473E+03	 5.652E+02	 3.981E+01	 1.369E+01	-3.447E+03	 1.353E+03	-1.340E+03	 3.626E-13	 3.787E+01	 3.995E+01	-6.855E+03	-1.275E+03	 1.170E+03	-5.489E-03	 1.199E+00	-9.197E+06	-3.469E-13	 4.602E+07	-5.519E-12	 1.606E+08	 1.776E-10
    0.2300	 8.060E+00	 1.820E-03	-3.226E-03	 1.354E+00	-1.764E-01	 0.000E+00	 0.000E+00	 1.263E+01	 9.155E+00	 1.337E+03	 8.881E+02	 1.400E-03	-1.513E-03	 0.000E+00	-3.348E+01	 6.838E+02	 8.988E+01	-4.501E+01	 1.965E+02	 8.354E+02	 3.103E+03	-7.304E+01	-2.515E+03	 5.721E+02	 4.302E+01	 9.729E+00	-3.451E+03	 1.322E+03	-1.382E+03	 1.773E-13	 3.285E+01	 4.467E+01	-6.858E+03	-1.375E+03	 1.088E+03	-5.110E-03	 1.173E+00	-9.059E+06	 0.000E+00	 4.603E+07	-1.388E-12	 1.595E+08	-1.776E-10
    0.2400	 8.060E+00	 1.820E-03	-3.226E-03	 1.451E+00	-1.900E-01	 0.000E+00	 0.000E+00	 1.318E+01	 9.155E+00	 1.366E+03	 8.881E+02	 1.813E-03	-1.681E-03	 0.000E+00	-3.014E+01	 7.305E+02	 9.441E+01	-4.701E+01	 1.970E+02	 8.840E+02	 3.294E+03	 1.601E+01	-2.535E+03	 6.076E+02	 4.844E+01	 9.015E+00	-3.458E+03	 1.352E+03	-1.415E+03	-6.439E-14	 2.886E+01	 4.693E+01	-6.866E+03	-1.424E+03	 1.027E+03	-4.630E-03	 1.147E+00	-8.922E+06	 2.429E-12	 4.605E+07	 1.409E-12	 1.585E+08	 4.879E-14
    0.2500	 8.072E+00	 2.468E-03	-3.515E-03	 1.549E+00	-2.040E-01	 0.000E+00	 0.000E+00	 1.373E+01	 9.155E+00	 1.456E+03	 8.881E+02	 2.277E-03	-1.856E-03	 0.000E+00	-2.589E+01	 7.719E+02	 1.043E+02	-4.999E+01	 1.973E+02	 9.466E+02	 3.553E+03	-1.844E+01	-2.584E+03	 6.619E+02	 5.657E+01	 1.139E+01	-3.468E+03	 1.438E+03	-1.477E+03	 5.457E-14	 2.431E+01	 4.678E+01	-6.875E+03	-1.422E+03	 9.556E+02	-3.797E-03	 1.121E+00	-8.785E+06	 6.939E-13	 4.606E+07	-1.453E-12	 1.574E+08	 7.105E-10
    0.2600	 8.072E+00	 2.468E-03	-3.515E-03	 1.647E+00	-2.183E-01	 0.000E+00	 0.000E+00	 1.428E+01	 9.155E+00	 1.560E+03	 8.881E+02	 2.804E-03	-2.040E-03	 0.000E+00	-2.228E+01	 8.122E+02	 1.164E+02	-5.385E+01	 1.974E+02	 1.021E+03	 3.838E+03	 3.356E+01	-2.595E+03	 6.829E+02	 6.367E+01	 1.457E+01	-3.478E+03	 1.535E+03	-1.500E+03	 3.229E-13	 2.121E+01	 4.568E+01	-6.885E+03	-1.396E+03	 9.237E+02	-2.133E-03	 1.095E+00	-8.648E+06	 0.000E+00	 4.608E+07	 1.453E-12	 1.564E+08	-1.084E-14
    0.2700	 8.072E+00	 2.468E-03	-3.515E-03	 1.746E+00	-2.330E-01	 0.000E+00	 0.000E+00	 1.483E+01	 9.155E+00	 1.510E+03	 8.881E+02	 3.404E-03	-2.232E-03	 0.000E+00	-1.761E+01	 8.783E+02	 1.105E+02	-5.363E+01	 1.983E+02	 1.043E+03	 3.882E+03	-4.675E+01	-2.630E+03	 7.447E+02	 6.811E+01	 1.136E+01	-3.482E+03	 1.492E+03	-1.546E+03	-4.091E-14	 1.515E+01	 4.840E+01	-6.889E+03	-1.435E+03	 8.431E+02	-1.363E-03	 1.069E+00	-8.511E+06	-1.388E-12	 4.609E+07	 2.700E-12	 1.554E+08	-1.626E-14
    0.2800	 8.072E+00	 2.468E-03	-3.515E-03	 1.846E+00	-2.480E-01	 0.000E+00	 0.000E+00	 1.538E+01	 9.155E+00	 1.539E+03	 8.881E+02	 4.072E-03	-2.431E-03	 0.000E+00	-1.193E+01	 9.269E+02	 1.145E+02	-5.564E+01	 1.988E+02	 1.096E+03	 4.063E+03	-2.287E+00	-2.625E+03	 7.765E+02	 7.317E+01	 1.188E+01	-3.489E+03	 1.520E+03	-1.554E+03	 1.586E-13	 1.178E+01	 4.829E+01	-6.896E+03	-1.416E+03	 8.269E+02	 2.980E-04	 1.042E+00	-8.375E+06	 0.000E+00	 4.611E+07	-2.884E-12	 1.543E+08	-3.553E-10
    0.2900	 8.084E+00	 3.280E-03	-3.705E-03	 1.946E+00	-2.633E-01	 0.000E+00	 0.000E+00	 1.593E+01	 9.155E+00	 1.621E+03	 8.881E+02	 4.803E-03	-2.637E-03	 0.000E+00	-5.985E+00	 9.701E+02	 1.243E+02	-5.883E+01	 1.990E+02	 1.164E+03	 4.314E+03	-5.287E+00	-2.676E+03	 8.193E+02	 8.161E+01	 1.507E+01	-3.497E+03	 1.595E+03	-1.614E+03	 4.818E-14	 7.919E+00	 4.601E+01	-6.905E+03	-1.350E+03	 8.054E+02	 2.530E-03	 1.016E+00	-8.238E+06	-1.561E-12	 4.612E+07	 2.125E-12	 1.533E+08	 3.552E-10
    0.3000	 8.084E+00	 3.280E-03	-3.705E-03	 2.047E+00	-2.788E-01	 0.000E+00	 0.000E+00	 1.648E+01	 9.155E+00	 1.698E+03	 8.881E+02	 5.611E-03	-2.850E-03	 0.000E+00	 5.242E-01	 1.017E+03	 1.332E+02	-6.197E+01	 1.992E+02	 1.233E+03	 4.549E+03	-4.531E+00	-2.690E+03	 8.565E+02	 8.840E+01	 1.834E+01	-3.506E+03	 1.667E+03	-1.641E+03	 9.270E-15	 5.537E+00	 4.335E+01	-6.913E+03	-1.273E+03	 8.304E+02	 5.569E-03	 9.901E-01	-8.102E+06	-8.674E-13	 4.614E+07	-2.721E-12	 1.523E+08	-1.776E-10
    0.3100	 8.084E+00	 3.280E-03	-3.705E-03	 2.147E+00	-2.946E-01	 0.000E+00	 0.000E+00	 1.703E+01	 9.155E+00	 1.666E+03	 8.881E+02	 6.501E-03	-3.070E-03	 0.000E+00	 6.450E+00	 1.074E+03	 1.304E+02	-6.272E+01	 1.996E+02	 1.272E+03	 4.633E+03	-1.710E+01	-2.680E+03	 8.905E+02	 9.126E+01	 1.696E+01	-3.509E+03	 1.636E+03	-1.643E+03	 5.376E-13	 3.142E+00	 4.341E+01	-6.917E+03	-1.240E+03	 8.760E+02	 7.761E-03	 9.640E-01	-7.966E+06	-8.674E-13	 4.615E+07	-2.667E-12	 1.512E+08	-1.777E-10
    0.3200	 8.084E+00	 3.280E-03	-3.705E-03	 2.247E+00	-3.106E-01	 0.000E+00	 0.000E+00	 1.758E+01	 9.155E+00	 1.694E+03	 8.881E+02	 7.472E-03	-3.296E-03	 0.000E+00	 1.433E+01	 1.123E+03	 1.342E+02	-6.481E+01	 2.001E+02	 1.330E+03	 4.801E+03	-1.589E+01	-2.689E+03	 9.275E+02	 9.634E+01	 1.847E+01	-3.515E+03	 1.661E+03	-1.667E+03	-4.741E-14	 1.710E+00	 4.132E+01	-6.923E+03	-1.164E+03	 9.513E+02	 1.085E-02	 9.378E-01	-7.829E+06	-6.939E-13	 4.616E+07	 2.819E-12	 1.502E+08	 3.553E-10
    0.3300	 8.098E+00	 4.139E-03	-3.985E-03	 2.347E+00	-3.268E-01	 0.000E+00	 0.000E+00	 1.813E+01	 9.155E+00	 1.756E+03	 8.881E+02	 8.520E-03	-3.527E-03	 0.000E+00	 2.211E+01	 1.169E+03	 1.419E+02	-6.760E+01	 2.000E+02	 1.397E+03	 5.016E+03	 1.054E+00	-2.714E+03	 9.835E+02	 1.029E+02	 2.170E+01	-3.522E+03	 1.718E+03	-1.710E+03	-2.980E-13	 1.047E+00	 3.789E+01	-6.930E+03	-1.060E+03	 1.055E+03	 1.492E-02	 9.117E-01	-7.693E+06	 1.388E-12	 4.618E+07	 2.168E-14	 1.491E+08	-1.084E-13
    0.3400	 8.098E+00	 4.139E-03	-3.985E-03	 2.446E+00	-3.431E-01	 0.000E+00	 0.000E+00	 1.868E+01	 9.155E+00	 1.821E+03	 8.881E+02	 9.654E-03	-3.763E-03	 0.000E+00	 3.058E+01	 1.216E+03	 1.495E+02	-7.057E+01	 2.001E+02	 1.468E+03	 5.224E+03	-1.378E+01	-2.720E+03	 1.029E+03	 1.083E+02	 2.515E+01	-3.529E+03	 1.776E+03	-1.736E+03	-2.193E-13	 1.879E+00	 3.416E+01	-6.936E+03	-9.471E+02	 1.209E+03	 1.995E-02	 8.855E-01	-7.558E+06	-1.388E-12	 4.619E+07	-2.776E-12	 1.481E+08	-2.664E-10
    0.3500	 8.098E+00	 4.139E-03	-3.985E-03	 2.544E+00	-3.596E-01	 0.000E+00	 0.000E+00	 1.923E+01	 9.155E+00	 1.791E+03	 8.881E+02	 1.088E-02	-4.004E-03	 0.000E+00	 3.821E+01	 1.272E+03	 1.465E+02	-7.146E+01	 2.003E+02	 1.511E+03	 5.296E+03	-1.912E+01	-2.711E+03	 1.061E+03	 1.104E+02	 2.443E+01	-3.531E+03	 1.747E+03	-1.742E+03	-1.695E-13	 3.142E+00	 3.304E+01	-6.939E+03	-8.811E+02	 1.394E+03	 2.349E-02	 8.594E-01	-7.422E+06	-2.082E-12	 4.621E+07	-2.841E-12	 1.471E+08	 2.665E-10
    0.3600	 8.098E+00	 4.139E-03	-3.985E-03	 2.641E+00	-3.761E-01	 0.000E+00	 0.000E+00	 1.978E+01	 9.155E+00	 1.817E+03	 8.881E+02	 1.220E-02	-4.248E-03	 0.000E+00	 4.740E+01	 1.319E+03	 1.496E+02	-7.361E+01	 2.005E+02	 1.573E+03	 5.444E+03	-1.940E+01	-2.710E+03	 1.101E+03	 1.139E+02	 2.621E+01	-3.536E+03	 1.769E+03	-1.760E+03	 1.665E-15	 5.702E+00	 3.026E+01	-6.943E+03	-7.836E+02	 1.620E+03	 2.863E-02	 8.332E-01	-7.286E+06	-1.214E-12	 4.622E+07	-4.879E-12	 1.460E+08	 1.776E-10
    0.3700	 8.113E+00	 5.111E-03	-4.138E-03	 2.737E+00	-3.926E-01	 0.000E+00	 0.000E+00	 2.032E+01	 9.155E+00	 1.868E+03	 8.881E+02	 1.360E-02	-4.496E-03	 0.000E+00	 5.623E+01	 1.364E+03	 1.561E+02	-7.641E+01	 2.003E+02	 1.642E+03	 5.631E+03	-1.448E+00	-2.715E+03	 1.156E+03	 1.183E+02	 2.916E+01	-3.541E+03	 1.815E+03	-1.791E+03	-8.131E-13	 9.316E+00	 2.673E+01	-6.948E+03	-6.718E+02	 1.883E+03	 3.511E-02	 8.071E-01	-7.151E+06	-1.561E-12	 4.624E+07	-2.645E-12	 1.450E+08	-3.552E-10
    0.3800	 8.113E+00	 5.111E-03	-4.138E-03	 2.832E+00	-4.092E-01	 0.000E+00	 0.000E+00	 2.087E+01	 9.155E+00	 1.928E+03	 8.881E+02	 1.509E-02	-4.748E-03	 0.000E+00	 6.561E+01	 1.411E+03	 1.624E+02	-7.949E+01	 2.002E+02	 1.715E+03	 5.809E+03	-1.744E+01	-2.722E+03	 1.193E+03	 1.224E+02	 3.234E+01	-3.546E+03	 1.869E+03	-1.817E+03	-1.188E-14	 1.408E+01	 2.313E+01	-6.953E+03	-5.597E+02	 2.187E+03	 4.274E-02	 7.809E-01	-7.016E+06	-1.388E-12	 4.625E+07	 0.000E+00	 1.439E+08	-8.882E-11
    0.3900	 8.113E+00	 5.111E-03	-4.138E-03	 2.925E+00	-4.257E-01	 0.000E+00	 0.000E+00	 2.142E+01	 9.155E+00	 1.897E+03	 8.881E+02	 1.669E-02	-5.001E-03	 0.000E+00	 7.464E+01	 1.459E+03	 1.594E+02	-8.028E+01	 2.000E+02	 1.761E+03	 5.870E+03	-1.930E+01	-2.687E+03	 1.251E+03	 1.228E+02	 3.140E+01	-3.547E+03	 1.840E+03	-1.815E+03	 6.143E-13	 1.935E+01	 2.235E+01	-6.954E+03	-5.014E+02	 2.526E+03	 4.810E-02	 7.548E-01	-6.881E+06	-6.939E-13	 4.626E+07	 1.702E-12	 1.429E+08	-8.875E-11
    0.4000	 8.113E+00	 5.111E-03	-4.138E-03	 3.017E+00	-4.421E-01	 0.000E+00	 0.000E+00	 2.197E+01	 9.155E+00	 1.916E+03	 8.881E+02	 1.838E-02	-5.257E-03	 0.000E+00	 8.434E+01	 1.504E+03	 1.615E+02	-8.259E+01	 2.000E+02	 1.825E+03	 5.991E+03	-2.289E+01	-2.678E+03	 1.284E+03	 1.249E+02	 3.251E+01	-3.550E+03	 1.857E+03	-1.826E+03	-6.148E-13	 2.569E+01	 2.040E+01	-6.957E+03	-4.240E+02	 2.899E+03	 5.564E-02	 7.286E-01	-6.746E+06	 3.469E-13	 4.628E+07	-2.927E-13	 1.418E+08	 8.875E-11
    0.4100	 8.128E+00	 6.204E-03	-4.370E-03	 3.107E+00	-4.585E-01	 0.000E+00	 0.000E+00	 2.252E+01	 9.155E+00	 1.966E+03	 8.881E+02	 2.016E-02	-5.514E-03	 0.000E+00	 9.367E+01	 1.547E+03	 1.669E+02	-8.545E+01	 1.997E+02	 1.896E+03	 6.148E+03	-3.880E+00	-2.676E+03	 1.339E+03	 1.282E+02	 3.481E+01	-3.553E+03	 1.902E+03	-1.853E+03	-5.111E-13	 3.268E+01	 1.791E+01	-6.960E+03	-3.390E+02	 3.300E+03	 6.509E-02	 6.967E-01	-6.614E+06	-8.674E-13	 4.629E+07	-1.388E-12	 1.407E+08	-8.884E-11
    0.4200	 8.128E+00	 6.204E-03	-4.370E-03	 3.195E+00	-4.747E-01	 0.000E+00	 0.000E+00	 2.307E+01	 9.155E+00	 2.000E+03	 8.881E+02	 2.205E-02	-5.772E-03	 0.000E+00	 1.036E+02	 1.592E+03	 1.697E+02	-8.804E+01	 1.997E+02	 1.963E+03	 6.265E+03	-3.047E+01	-2.681E+03	 1.381E+03	 1.311E+02	 3.621E+01	-3.555E+03	 1.934E+03	-1.880E+03	-3.256E-13	 3.994E+01	 1.624E+01	-6.963E+03	-2.727E+02	 3.722E+03	 7.468E-02	 6.647E-01	-6.483E+06	-1.041E-12	 4.629E+07	-4.077E-12	 1.396E+08	-5.329E-10
    0.4300	 8.128E+00	 6.204E-03	-4.370E-03	 3.281E+00	-4.907E-01	 0.000E+00	 0.000E+00	 2.362E+01	 9.155E+00	 2.001E+03	 8.881E+02	 2.403E-02	-6.031E-03	 0.000E+00	 1.128E+02	 1.634E+03	 1.700E+02	-8.987E+01	 1.992E+02	 2.023E+03	 6.355E+03	-1.042E+01	-2.635E+03	 1.424E+03	 1.313E+02	 3.588E+01	-3.556E+03	 1.936E+03	-1.863E+03	-1.630E-12	 4.854E+01	 1.597E+01	-6.963E+03	-2.360E+02	 4.191E+03	 8.398E-02	 6.327E-01	-6.351E+06	-8.674E-13	 4.630E+07	 3.188E-12	 1.384E+08	 8.880E-11
    0.4400	 8.128E+00	 6.204E-03	-4.370E-03	 3.364E+00	-5.066E-01	 0.000E+00	 0.000E+00	 2.417E+01	 9.155E+00	 2.023E+03	 8.881E+02	 2.611E-02	-6.289E-03	 0.000E+00	 1.227E+02	 1.675E+03	 1.715E+02	-9.226E+01	 1.991E+02	 2.088E+03	 6.451E+03	-2.587E+01	-2.626E+03	 1.462E+03	 1.333E+02	 3.620E+01	-3.556E+03	 1.957E+03	-1.875E+03	 3.587E-13	 5.669E+01	 1.557E+01	-6.964E+03	-2.009E+02	 4.661E+03	 9.456E-02	 6.008E-01	-6.220E+06	-5.551E-13	 4.631E+07	-1.995E-12	 1.373E+08	 5.204E-14
    0.4500	 8.145E+00	 7.259E-03	-4.675E-03	 3.445E+00	-5.223E-01	 0.000E+00	 0.000E+00	 2.472E+01	 9.155E+00	 2.054E+03	 8.881E+02	 2.830E-02	-6.546E-03	 0.000E+00	 1.323E+02	 1.715E+03	 1.741E+02	-9.482E+01	 1.988E+02	 2.155E+03	 6.556E+03	-1.054E+01	-2.619E+03	 1.515E+03	 1.362E+02	 3.675E+01	-3.557E+03	 1.988E+03	-1.894E+03	-9.249E-13	 6.487E+01	 1.533E+01	-6.965E+03	-1.729E+02	 5.143E+03	 1.064E-01	 5.688E-01	-6.089E+06	-2.776E-13	 4.632E+07	-3.400E-12	 1.362E+08	-7.104E-11
    0.4600	 8.145E+00	 7.259E-03	-4.675E-03	 3.524E+00	-5.377E-01	 0.000E+00	 0.000E+00	 2.527E+01	 9.155E+00	 2.097E+03	 8.881E+02	 3.058E-02	-6.803E-03	 0.000E+00	 1.423E+02	 1.753E+03	 1.788E+02	-9.783E+01	 1.985E+02	 2.227E+03	 6.679E+03	-1.205E+01	-2.595E+03	 1.567E+03	 1.389E+02	 3.754E+01	-3.558E+03	 2.030E+03	-1.898E+03	-6.959E-13	 7.357E+01	 1.520E+01	-6.966E+03	-1.510E+02	 5.648E+03	 1.203E-01	 5.368E-01	-5.958E+06	 5.551E-13	 4.633E+07	 2.567E-12	 1.350E+08	 2.132E-10
    0.4700	 8.145E+00	 7.259E-03	-4.675E-03	 3.600E+00	-5.529E-01	 0.000E+00	 0.000E+00	 2.582E+01	 9.155E+00	 2.083E+03	 8.881E+02	 3.297E-02	-7.057E-03	 0.000E+00	 1.519E+02	 1.791E+03	 1.743E+02	-9.914E+01	 1.987E+02	 2.277E+03	 6.691E+03	-3.739E+01	-2.591E+03	 1.589E+03	 1.406E+02	 3.554E+01	-3.556E+03	 2.019E+03	-1.900E+03	 1.240E-12	 8.134E+01	 1.719E+01	-6.964E+03	-1.723E+02	 6.146E+03	 1.308E-01	 5.048E-01	-5.828E+06	 8.327E-13	 4.634E+07	-1.318E-12	 1.339E+08	-4.264E-10
    0.4800	 8.145E+00	 7.259E-03	-4.675E-03	 3.673E+00	-5.679E-01	 0.000E+00	 0.000E+00	 2.637E+01	 9.155E+00	 2.103E+03	 8.881E+02	 3.546E-02	-7.310E-03	 0.000E+00	 1.620E+02	 1.827E+03	 1.752E+02	-1.014E+02	 1.986E+02	 2.341E+03	 6.762E+03	-2.277E+01	-2.585E+03	 1.639E+03	 1.440E+02	 3.486E+01	-3.555E+03	 2.041E+03	-1.912E+03	 1.904E-12	 8.891E+01	 1.856E+01	-6.962E+03	-1.858E+02	 6.648E+03	 1.443E-01	 4.729E-01	-5.697E+06	 8.327E-13	 4.635E+07	 3.695E-12	 1.328E+08	 7.107E-11
    0.4900	 8.161E+00	 8.604E-03	-4.574E-03	 3.743E+00	-5.825E-01	 0.000E+00	 0.000E+00	 2.692E+01	 9.155E+00	 2.142E+03	 8.881E+02	 3.804E-02	-7.560E-03	 0.000E+00	 1.717E+02	 1.860E+03	 1.788E+02	-1.043E+02	 1.983E+02	 2.412E+03	 6.860E+03	-1.695E+01	-2.552E+03	 1.679E+03	 1.471E+02	 3.484E+01	-3.554E+03	 2.080E+03	-1.899E+03	 5.638E-13	 9.713E+01	 1.968E+01	-6.962E+03	-1.978E+02	 7.173E+03	 1.608E-01	 4.409E-01	-5.567E+06	-2.776E-13	 4.635E+07	-3.053E-12	 1.316E+08	-5.204E-14
    0.5000	 8.161E+00	 8.604E-03	-4.574E-03	 3.810E+00	-5.969E-01	 0.000E+00	 0.000E+00	 2.747E+01	 9.155E+00	 2.170E+03	 8.881E+02	 4.073E-02	-7.807E-03	 0.000E+00	 1.819E+02	 1.896E+03	 1.799E+02	-1.068E+02	 1.985E+02	 2.475E+03	 6.921E+03	-3.046E+01	-2.564E+03	 1.730E+03	 1.522E+02	 3.417E+01	-3.553E+03	 2.109E+03	-1.922E+03	-2.199E-13	 1.035E+02	 2.142E+01	-6.960E+03	-2.241E+02	 7.666E+03	 1.764E-01	 4.089E-01	-5.437E+06	 0.000E+00	 4.636E+07	-8.622E-12	 1.305E+08	-2.132E-10
    0.5100	 8.161E+00	 8.604E-03	-4.574E-03	 3.874E+00	-6.110E-01	 0.000E+00	 0.000E+00	 2.801E+01	 9.155E+00	 2.184E+03	 8.881E+02	 4.352E-02	-8.050E-03	 0.000E+00	 1.918E+02	 1.921E+03	 1.802E+02	-1.089E+02	 1.982E+02	 2.537E+03	 6.979E+03	-1.808E+01	-2.505E+03	 1.758E+03	 1.545E+02	 3.279E+01	-3.550E+03	 2.127E+03	-1.877E+03	 6.368E-13	 1.112E+02	 2.372E+01	-6.958E+03	-2.631E+02	 8.200E+03	 1.933E-01	 3.770E-01	-5.307E+06	 0.000E+00	 4.637E+07	-1.527E-12	 1.294E+08	-1.421E-10
    0.5200	 8.161E+00	 8.604E-03	-4.574E-03	 3.935E+00	-6.247E-01	 0.000E+00	 0.000E+00	 2.856E+01	 9.155E+00	 2.205E+03	 8.881E+02	 4.641E-02	-8.290E-03	 0.000E+00	 2.020E+02	 1.951E+03	 1.806E+02	-1.113E+02	 1.985E+02	 2.599E+03	 7.026E+03	-2.964E+01	-2.504E+03	 1.784E+03	 1.594E+02	 3.155E+01	-3.547E+03	 2.149E+03	-1.874E+03	-1.243E-12	 1.171E+02	 2.603E+01	-6.955E+03	-3.037E+02	 8.700E+03	 2.104E-01	 3.450E-01	-5.177E+06	-2.776E-13	 4.638E+07	-4.450E-12	 1.282E+08	 1.421E-10
    0.5300	 8.179E+00	 9.759E-03	-4.549E-03	 3.993E+00	-6.382E-01	 0.000E+00	 0.000E+00	 2.911E+01	 9.155E+00	 2.235E+03	 8.881E+02	 4.939E-02	-8.526E-03	 0.000E+00	 2.122E+02	 1.980E+03	 1.817E+02	-1.136E+02	 1.985E+02	 2.661E+03	 7.075E+03	-2.015E+01	-2.494E+03	 1.832E+03	 1.652E+02	 3.078E+01	-3.545E+03	 2.182E+03	-1.871E+03	-3.092E-13	 1.223E+02	 2.809E+01	-6.952E+03	-3.408E+02	 9.193E+03	 2.297E-01	 3.130E-01	-5.048E+06	-8.327E-13	 4.639E+07	-3.036E-12	 1.271E+08	-6.939E-14
    0.5400	 8.179E+00	 9.759E-03	-4.549E-03	 4.047E+00	-6.513E-01	 0.000E+00	 0.000E+00	 2.966E+01	 9.155E+00	 2.255E+03	 8.881E+02	 5.248E-02	-8.758E-03	 0.000E+00	 2.228E+02	 2.010E+03	 1.814E+02	-1.158E+02	 1.990E+02	 2.719E+03	 7.100E+03	-3.994E+01	-2.505E+03	 1.863E+03	 1.717E+02	 2.949E+01	-3.541E+03	 2.203E+03	-1.873E+03	 2.485E-13	 1.267E+02	 3.045E+01	-6.949E+03	-3.840E+02	 9.674E+03	 2.484E-01	 2.811E-01	-4.918E+06	-2.776E-13	 4.639E+07	 6.358E-12	 1.259E+08	-7.112E-11
    0.5500	 8.179E+00	 9.759E-03	-4.549E-03	 4.098E+00	-6.641E-01	 0.000E+00	 0.000E+00	 3.021E+01	 9.155E+00	 2.284E+03	 8.881E+02	 5.566E-02	-8.986E-03	 0.000E+00	 2.333E+02	 2.028E+03	 1.829E+02	-1.179E+02	 1.988E+02	 2.781E+03	 7.161E+03	-1.621E+01	-2.453E+03	 1.903E+03	 1.768E+02	 2.873E+01	-3.538E+03	 2.236E+03	-1.831E+03	 4.530E-14	 1.319E+02	 3.239E+01	-6.945E+03	-4.192E+02	 1.018E+04	 2.706E-01	 2.491E-01	-4.789E+06	-1.110E-12	 4.640E+07	 3.053E-12	 1.248E+08	-7.109E-11
    0.5600	 8.179E+00	 9.759E-03	-4.549E-03	 4.146E+00	-6.765E-01	 0.000E+00	 0.000E+00	 3.076E+01	 9.155E+00	 2.308E+03	 8.881E+02	 5.894E-02	-9.210E-03	 0.000E+00	 2.439E+02	 2.051E+03	 1.834E+02	-1.201E+02	 1.992E+02	 2.840E+03	 7.194E+03	-3.288E+01	-2.446E+03	 1.923E+03	 1.834E+02	 2.770E+01	-3.534E+03	 2.261E+03	-1.810E+03	-1.550E-13	 1.358E+02	 3.440E+01	-6.941E+03	-4.547E+02	 1.067E+04	 2.923E-01	 2.171E-01	-4.660E+06	-1.110E-12	 4.641E+07	-6.592E-12	 1.236E+08	 3.567E-11
    0.5700	 8.198E+00	 1.088E-02	-4.489E-03	 4.190E+00	-6.886E-01	 0.000E+00	 0.000E+00	 3.131E+01	 9.155E+00	 2.334E+03	 8.881E+02	 6.231E-02	-9.429E-03	 0.000E+00	 2.545E+02	 2.073E+03	 1.836E+02	-1.221E+02	 1.995E+02	 2.896E+03	 7.217E+03	-2.411E+01	-2.438E+03	 1.963E+03	 1.909E+02	 2.696E+01	-3.530E+03	 2.289E+03	-1.795E+03	-3.925E-13	 1.390E+02	 3.611E+01	-6.937E+03	-4.835E+02	 1.115E+04	 3.153E-01	 1.852E-01	-4.531E+06	 1.665E-12	 4.642E+07	-3.469E-14	 1.225E+08	 2.429E-13